<?xml version="1.0" encoding="UTF-8"?>

<!-- generated on Mo 29 Feb 2016 15:09:39 CET by SUMO gui Version 0.25.0
<?xml version="1.0" encoding="UTF-8"?>

<configuration xmlns:xsi="http://www.w3.org/2001/XMLSchema-instance" xsi:noNamespaceSchemaLocation="http://sumo.dlr.de/xsd/sumo-gui.exeConfiguration.xsd">

    <input>
        <net-file value="reroute.net.xml"/>
        <route-files value="reroute.rou.xml"/>
    </input>

    <output>
        <tripinfo-output value="tripinfo.xml"/>
    </output>

    <time>
        <begin value="0"/>
        <end value="10000"/>
    </time>

    <traci_server>
        <remote-port value="8873"/>
    </traci_server>

    <gui_only>
        <gui-settings-file value="gui-settings.cfg"/>
    </gui_only>

</configuration>
-->

<tripinfos xmlns:xsi="http://www.w3.org/2001/XMLSchema-instance" xsi:noNamespaceSchemaLocation="http://sumo.dlr.de/xsd/tripinfo_file.xsd">
    <tripinfo id="veh0" depart="0.00" departLane="entry24to24_0" departPos="4.10" departSpeed="0.00" departDelay="0.00" arrival="46.00" arrivalLane="16to22_0" arrivalPos="65.50" arrivalSpeed="8.33" duration="46.00" routeLength="347.03" waitSteps="0" timeLoss="5.19" rerouteNo="1" devices="tripinfo_veh0 routing_veh0" vType="Car@veh0" vaporized=""/>
</tripinfos>
